/*--------------------------------*- C++ -*----------------------------------*\
  =========                 |
  \\      /  F ield         | OpenFOAM: The Open Source CFD Toolbox
   \\    /   O peration     | Website:  https://openfoam.org
    \\  /    A nd           | Version:  v2006
     \\/     M anipulation  |
\*---------------------------------------------------------------------------*/
FoamFile
{
    version     2.0;
    format      ascii;
    class       volScalarField;
    location    "0";
    object      T;
}
// * * * * * * * * * * * * * * * * * * * * * * * * * * * * * * * * * * * * * //

dimensions      [0 0 0 1 0 0 0];

internalField   uniform 999;

boundaryField
{
    top
    {
        type            fixedValue;
        value           uniform 950;
    }
    
    bottom
    {
        type            fixedValue;
        value           uniform 950;
    }
    
    right
    {
        type            fixedValue;
        value           uniform 950;
    }

    left
    {
        type            fixedValue;
        value           uniform 950;
    }
    
    front
    {
       type            zeroGradient;
    }
    
    back
    {
       type            zeroGradient;
    }
    
}


// ************************************************************************* //
